# vtk DataFile Version 4.2
vtk output
ASCII
DATASET UNSTRUCTURED_GRID
POINTS 341 double
0.0 0.0 1.0 0.0 0.0 0.0 0.0 1.0 1.0
0.0 1.0 0.0 1.0 0.0 1.0 1.0 0.0 0.0
1.0 1.0 1.0 1.0 1.0 0.0 0.0 0.0 0.1666666666666662
0.0 0.0 0.3333333333333324 0.0 0.0 0.4999999999999986 0.0 0.0 0.6666666666666646
0.0 0.0 0.8333333333333321 0.0 0.1666666666666662 1.0 0.0 0.3333333333333324 1.0
0.0 0.4999999999999986 1.0 0.0 0.6666666666666646 1.0 0.0 0.8333333333333321 1.0
0.0 1.0 0.1666666666666662 0.0 1.0 0.3333333333333324 0.0 1.0 0.4999999999999986
0.0 1.0 0.6666666666666646 0.0 1.0 0.8333333333333321 0.0 0.1666666666666662 0.0
0.0 0.3333333333333324 0.0 0.0 0.4999999999999986 0.0 0.0 0.6666666666666646 0.0
0.0 0.8333333333333321 0.0 1.0 0.0 0.1666666666666662 1.0 0.0 0.3333333333333324
1.0 0.0 0.4999999999999986 1.0 0.0 0.6666666666666646 1.0 0.0 0.8333333333333321
1.0 0.1666666666666662 1.0 1.0 0.3333333333333324 1.0 1.0 0.4999999999999986 1.0
1.0 0.6666666666666646 1.0 1.0 0.8333333333333321 1.0 1.0 1.0 0.1666666666666662
1.0 1.0 0.3333333333333324 1.0 1.0 0.4999999999999986 1.0 1.0 0.6666666666666646
1.0 1.0 0.8333333333333321 1.0 0.1666666666666662 0.0 1.0 0.3333333333333324 0.0
1.0 0.4999999999999986 0.0 1.0 0.6666666666666646 0.0 1.0 0.8333333333333321 0.0
0.1666666666666662 0.0 0.0 0.3333333333333324 0.0 0.0 0.4999999999999986 0.0 0.0
0.6666666666666646 0.0 0.0 0.8333333333333321 0.0 0.0 0.1666666666666662 0.0 1.0
0.3333333333333324 0.0 1.0 0.4999999999999986 0.0 1.0 0.6666666666666646 0.0 1.0
0.8333333333333321 0.0 1.0 0.1666666666666662 1.0 0.0 0.3333333333333324 1.0 0.0
0.4999999999999986 1.0 0.0 0.6666666666666646 1.0 0.0 0.8333333333333321 1.0 0.0
0.1666666666666662 1.0 1.0 0.3333333333333324 1.0 1.0 0.4999999999999986 1.0 1.0
0.6666666666666646 1.0 1.0 0.8333333333333321 1.0 1.0 0.0 0.5833333333333316 0.8556624327025941
0.0 0.5815109568340524 0.1508426476087527 0.0 0.1493826874925711 0.5977876091177627 0.0 0.8506173125074283 0.597787609117763
0.0 0.1356302602983094 0.2458798294733581 0.0 0.8611620212026556 0.2477062749977592 0.0 0.2507062282134787 0.8588713258240283
0.0 0.7492937717865187 0.8588713258240285 0.0 0.6925646466622742 0.697528712446488 0.0 0.5043163299992668 0.7090255065787381
0.0 0.5833333333333319 0.5669872981077819 0.0 0.4222204468242287 0.5638129342155495 0.0 0.5009256300262592 0.4250635842210113
0.0 0.666666666666665 0.4226497308103759 0.0 0.340090540338241 0.421369939200061 0.0 0.4404659175556339 0.2835712984850788
0.0 0.3088453690744141 0.6967467520581047 0.0 0.1687852027634298 0.4203907139583832 0.0 0.4134224323256369 0.8533843361939107
0.0 0.8318012084636082 0.4209213154057616 0.0 0.8613549960618433 0.7514957068082695 0.0 0.1388128629544283 0.7514026162858429
0.0 0.7528831044824416 0.1369493419813703 0.0 0.2418072307765989 0.1313072671406492 0.0 0.4059952396911893 0.135163461222794
0.0 0.5825475961794457 0.3153718094250966 0.0 0.283207576000983 0.2833193598962177 0.0 0.7127619256381446 0.2824068533715194
0.0 0.7209936490538894 0.5502404735808372 0.0 0.2778648492985769 0.5400215897099722 0.0 0.8779915320718527 0.8779915320718527
0.0 0.1220084679281455 0.8779915320718541 0.0 0.8779915320718541 0.1220084679281456 0.0 0.1211598774258424 0.1211598774258424
1.0 0.5977876091177629 0.8506173125074279 1.0 0.5977876091177626 0.1493826874925709 1.0 0.1508426476087527 0.5815109568340524
1.0 0.8556624327025939 0.5833333333333316 1.0 0.1513080901435648 0.2623742252847558 1.0 0.8588713258240283 0.2507062282134787
1.0 0.2477062749977593 0.8611620212026556 1.0 0.858871325824028 0.7492937717865189 1.0 0.6975287124464881 0.6925646466622739
1.0 0.7090255065787381 0.5043163299992666 1.0 0.5669872981077819 0.5833333333333311 1.0 0.5638129342155496 0.4222204468242281
1.0 0.4250635842210114 0.5009256300262586 1.0 0.421266030862663 0.3399105658185371 1.0 0.4226497308103761 0.6666666666666643
1.0 0.2722221709498887 0.4199000080986987 1.0 0.4209213154057616 0.8318012084636077 1.0 0.855814021751758 0.4175037597021233
1.0 0.4220429753551876 0.1691750301123359 1.0 0.6967684076365566 0.308964953793765 1.0 0.7514957068082695 0.8613549960618434
1.0 0.7514051943308966 0.1388270992305415 1.0 0.1369493419813703 0.7528831044824418 1.0 0.2555622040077321 0.139278356241809
1.0 0.3131019839180587 0.5784344142880585 1.0 0.1148745817404412 0.4194237047101676 1.0 0.3044802942638072 0.2661276371112273
1.0 0.2820285491203464 0.7120763953229133 1.0 0.5502404735808378 0.7209936490538891 1.0 0.540335591437544 0.2779307368082874
1.0 0.8779915320718531 0.8779915320718531 1.0 0.1220084679281459 0.1220084679281459 1.0 0.1220084679281456 0.8779915320718541
1.0 0.8779915320718541 0.1220084679281456 0.8556624327025941 0.0 0.5833333333333316 0.1508426476087527 0.0 0.5815109568340524
0.5977876091177627 0.0 0.1493826874925711 0.597787609117763 0.0 0.8506173125074283 0.2458798294733581 0.0 0.1356302602983094
0.2477062749977592 0.0 0.8611620212026556 0.8588713258240283 0.0 0.2507062282134787 0.8588713258240285 0.0 0.7492937717865187
0.697528712446488 0.0 0.6925646466622742 0.7090255065787381 0.0 0.5043163299992668 0.5669872981077819 0.0 0.5833333333333319
0.5638129342155495 0.0 0.4222204468242287 0.4250635842210113 0.0 0.5009256300262592 0.4226497308103759 0.0 0.666666666666665
0.421369939200061 0.0 0.340090540338241 0.2835712984850788 0.0 0.4404659175556339 0.6967467520581047 0.0 0.3088453690744141
0.8533843361939107 0.0 0.4134224323256369 0.4203907139583832 0.0 0.1687852027634298 0.4209213154057616 0.0 0.8318012084636082
0.7514957068082695 0.0 0.8613549960618433 0.7514026162858429 0.0 0.1388128629544283 0.1369493419813703 0.0 0.7528831044824416
0.1313072671406492 0.0 0.2418072307765989 0.135163461222794 0.0 0.4059952396911893 0.3153718094250966 0.0 0.5825475961794457
0.2833193598962177 0.0 0.283207576000983 0.2824068533715194 0.0 0.7127619256381446 0.5502404735808372 0.0 0.7209936490538894
0.5400215897099722 0.0 0.2778648492985769 0.8779915320718527 0.0 0.8779915320718527 0.8779915320718541 0.0 0.1220084679281455
0.1220084679281456 0.0 0.8779915320718541 0.1211598774258424 0.0 0.1211598774258424 0.8556624327025941 1.0 0.5833333333333316
0.1508426476087526 1.0 0.5815109568340524 0.5977876091177627 1.0 0.1493826874925711 0.597787609117763 1.0 0.8506173125074283
0.1513080901435647 1.0 0.262374225284756 0.2477062749977592 1.0 0.8611620212026556 0.8588713258240283 1.0 0.2507062282134787
0.8588713258240285 1.0 0.7492937717865187 0.697528712446488 1.0 0.6925646466622742 0.7090255065787381 1.0 0.5043163299992668
0.5669872981077819 1.0 0.5833333333333319 0.5638129342155495 1.0 0.4222204468242287 0.4250635842210113 1.0 0.5009256300262592
0.4212660308626628 1.0 0.3399105658185376 0.4226497308103759 1.0 0.666666666666665 0.2722221709498885 1.0 0.4199000080986991
0.6967467520581047 1.0 0.3088453690744141 0.8533843361939107 1.0 0.4134224323256369 0.4220429753551876 1.0 0.1691750301123361
0.4209213154057616 1.0 0.8318012084636082 0.7514957068082695 1.0 0.8613549960618433 0.7514026162858429 1.0 0.1388128629544283
0.1369493419813703 1.0 0.7528831044824418 0.2555622040077321 1.0 0.139278356241809 0.3131019839180586 1.0 0.5784344142880588
0.1148745817404412 1.0 0.4194237047101677 0.3044802942638072 1.0 0.2661276371112275 0.2820285491203464 1.0 0.7120763953229134
0.5502404735808372 1.0 0.7209936490538894 0.5403312603218534 1.0 0.2779068198644176 0.8779915320718527 1.0 0.8779915320718527
0.1220084679281459 1.0 0.1220084679281459 0.8779915320718541 1.0 0.1220084679281455 0.1220084679281456 1.0 0.8779915320718541
0.5977876091177629 0.8506173125074279 0.0 0.5977876091177626 0.1493826874925709 0.0 0.1508426476087527 0.5815109568340524 0.0
0.8556624327025939 0.5833333333333316 0.0 0.1513080901435648 0.2623742252847558 0.0 0.8588713258240283 0.2507062282134787 0.0
0.2477062749977593 0.8611620212026556 0.0 0.858871325824028 0.7492937717865189 0.0 0.6975287124464881 0.6925646466622739 0.0
0.7090255065787381 0.5043163299992666 0.0 0.5669872981077819 0.5833333333333311 0.0 0.5638129342155496 0.4222204468242281 0.0
0.4250635842210114 0.5009256300262586 0.0 0.421266030862663 0.3399105658185371 0.0 0.4226497308103761 0.6666666666666643 0.0
0.2722221709498887 0.4199000080986986 0.0 0.4209213154057616 0.8318012084636077 0.0 0.855814021751758 0.4175037597021233 0.0
0.4220429753551876 0.1691750301123359 0.0 0.6967684076365566 0.308964953793765 0.0 0.7514957068082695 0.8613549960618434 0.0
0.7514051943308966 0.1388270992305415 0.0 0.1369493419813703 0.7528831044824418 0.0 0.2555622040077321 0.139278356241809 0.0
0.3131019839180587 0.5784344142880585 0.0 0.1148745817404412 0.4194237047101676 0.0 0.3044802942638072 0.2661276371112273 0.0
0.2820285491203464 0.7120763953229133 0.0 0.5502404735808378 0.7209936490538891 0.0 0.540335591437544 0.2779307368082874 0.0
0.8779915320718531 0.8779915320718531 0.0 0.1220084679281458 0.1220084679281458 0.0 0.1220084679281456 0.8779915320718541 0.0
0.8779915320718541 0.1220084679281456 0.0 0.5977876091177629 0.8506173125074281 1.0 0.5977876091177626 0.1493826874925709 1.0
0.1508426476087526 0.5815109568340523 1.0 0.8556624327025939 0.5833333333333316 1.0 0.1513080901435648 0.2623742252847558 1.0
0.8588713258240283 0.2507062282134787 1.0 0.2477062749977592 0.8611620212026556 1.0 0.858871325824028 0.7492937717865189 1.0
0.697528712446488 0.6925646466622739 1.0 0.7090255065787381 0.5043163299992666 1.0 0.5669872981077819 0.583333333333331 1.0
0.5638129342155496 0.422220446824228 1.0 0.4250635842210114 0.5009256300262583 1.0 0.421266030862663 0.3399105658185371 1.0
0.422649730810376 0.6666666666666641 1.0 0.2722221709498887 0.4199000080986984 1.0 0.855814021751758 0.4175037597021233 1.0
0.4209213154057616 0.8318012084636078 1.0 0.4220429753551876 0.1691750301123359 1.0 0.6967684076365565 0.3089649537937649 1.0
0.7514957068082695 0.8613549960618434 1.0 0.1369493419813702 0.7528831044824416 1.0 0.7514051943308966 0.1388270992305415 1.0
0.2555622040077321 0.139278356241809 1.0 0.3131019839180586 0.5784344142880582 1.0 0.1148745817404412 0.4194237047101675 1.0
[...]
CELL_DATA 2550
FIELD FieldData 3

face_cell_1 1 2550 double
0 0 0 0 1 1 1 1 2 2
2 3 3 3 4 4 4 4 5 5
5 6 6 6 7 7 7 7 8 8
8 8 9 9 9 9 10 10 10 10
11 11 11 11 12 12 12 12 13 13
13 13 14 14 14 15 15 15 15 16
16 16 17 17 17 18 18 18 19 19
19 20 20 20 21 21 22 22 22 23
23 23 24 24 25 25 25 26 26 26
27 27 27 28 28 28 29 29 29 30
30 30 31 31 31 32 32 32 33 33
33 34 34 34 34 35 35 36 36 36
37 37 37 38 38 38 39 39 39 40
40 40 41 41 41 42 42 43 43 44
44 44 45 45 46 46 46 47 47 48
48 48 49 49 49 49 50 50 51 51
51 52 52 52 53 53 53 54 54 54
55 55 55 56 56 57 57 57 58 58
58 59 59 59 60 60 60 60 61 61
61 62 62 62 63 63 63 63 64 64
65 65 65 66 66 66 66 67 67 67
68 68 69 69 69 70 70 70 70 71
71 72 72 73 73 74 74 75 75 76
76 76 77 77 77 78 78 78 78 79
79 79 79 80 80 80 81 81 81 82
82 82 82 83 83 83 84 84 85 85
86 86 87 87 87 88 88 89 89 89
90 90 90 91 91 91 92 92 92 93
93 94 94 94 94 95 95 96 96 96
97 97 97 98 98 99 99 99 100 101
101 101 102 102 103 103 104 104 105 105
105 106 106 107 108 108 109 109 109 110
111 111 111 112 112 113 113 113 113 114
114 114 115 115 116 116 116 117 117 118
118 118 119 119 120 120 121 121 121 122
122 122 122 123 123 123 124 125 125 125
125 126 126 126 127 128 128 128 129 129
129 129 130 130 130 131 131 131 131 132
132 132 132 133 133 134 134 134 135 135
135 136 136 137 137 138 138 138 138 139
139 139 140 140 140 140 141 141 142 143
143 143 144 145 145 145 145 146 147 148
148 149 149 149 150 150 150 151 151 151
151 152 152 152 152 153 153 153 154 154
154 155 155 155 156 156 157 157 158 158
159 159 159 160 160 161 161 161 161 162
162 163 163 163 164 164 165 165 165 166
166 166 167 167 167 167 168 168 169 169
169 170 170 171 171 171 172 172 172 173
173 174 174 174 174 175 175 175 175 176
176 177 177 178 178 179 179 179 180 180
180 181 181 181 181 182 182 183 183 184
184 185 185 185 186 186 186 186 187 187
188 188 189 189 190 190 191 191 192 192
192 193 193 194 194 194 194 195 195 195
196 196 196 196 197 197 198 198 199 199
200 200 200 201 201 201 201 202 202 202
203 203 203 204 204 204 204 205 206 206
207 207 207 208 208 208 208 209 209 209
209 210 210 210 210 211 211 211 212 212
212 213 213 213 213 214 214 214 215 215
215 216 216 216 216 217 217 217 218 218
218 219 219 219 220 220 221 221 221 221
222 222 223 223 223 223 224 224 225 225
225 225 226 226 227 227 228 228 229 229
229 230 232 232 232 233 233 233 233 234
234 235 235 236 236 237 237 238 238 238
239 240 240 240 241 241 242 242 243 243
244 244 244 245 245 246 246 247 247 248
248 249 249 250 250 251 251 252 252 253
253 254 254 254 255 255 256 256 256 257
257 257 258 258 258 259 259 260 260 260
261 261 262 262 263 263 263 264 264 265
265 266 266 266 266 267 267 267 268 268
268 269 269 269 269 270 270 270 270 271
271 271 272 272 273 273 273 274 274 274
275 275 276 276 276 277 277 277 278 278
278 279 279 280 280 280 281 281 282 282
282 283 283 284 284 284 285 285 285 286
286 287 287 288 288 288 289 289 289 290
290 291 291 292 292 293 293 293 293 294
294 295 295 296 296 296 297 297 298 298
299 299 299 299 300 300 300 301 301 301
301 302 302 302 303 303 303 304 304 304
305 305 306 306 307 307 308 308 309 309
310 310 311 311 312 312 313 313 314 315
315 315 316 316 316 317 317 318 318 319
319 319 320 320 321 321 321 322 322 323
323 324 324 325 325 326 326 327 327 328
329 329 329 329 330 330 331 331 331 331
332 332 332 333 333 333 334 334 334 335
335 335 336 336 337 337 337 338 338 338
338 339 339 339 340 340 341 341 342 342
343 343 344 344 344 344 345 345 345 346
346 346 347 347 347 348 348 348 348 349
349 350 350 351 351 351 352 352 353 353
354 354 355 355 356 356 357 357 358 358
359 359 360 360 361 361 362 362 363 363
363 364 364 364 365 365 365 365 366 366
367 367 367 368 368 368 369 369 370 370
371 371 372 372 373 373 373 374 374 374
375 375 375 375 376 376 377 377 378 378
379 380 380 381 381 382 382 383 383 384
384 385 385 385 386 386 387 387 387 387
388 389 389 390 390 390 391 391 392 393
393 393 393 394 394 395 395 396 396 396
397 397 397 398 398 398 399 400 400 401
401 401 401 402 402 402 403 403 403 404
405 405 406 406 406 407 407 407 408 408
408 408 409 409 410 410 410 411 411 411
412 412 412 413 413 414 414 414 415 416
417 417 417 418 418 419 419 419 420 421
421 421 422 422 424 424 425 425 425 426
426 427 427 427 428 428 429 429 429 430
430 430 431 432 432 433 433 434 434 435
436 437 437 437 438 438 438 438 439 440
440 441 442 442 443 443 443 444 444 445
446 446 447 448 448 448 449 449 449 450
450 450 451 451 451 452 452 452 453 453
453 454 454 454 454 455 456 456 456 457
457 457 457 458 458 458 459 459 459 460
460 460 461 461 462 462 462 463 463 463
463 464 464 465 465 466 466 467 467 468
468 469 469 469 470 470 470 471 471 472
472 473 473 473 474 474 475 475 475 477
477 477 478 478 479 480 480 481 481 481
482 482 482 483 483 483 483 484 484 485
486 486 487 487 487 488 488 488 489 490
491 491 492 492 492 494 494 494 496 496
497 497 497 498 498 499 499 500 500 501
501 501 502 502 502 503 503 504 504 504
505 505 505 507 507 508 508 509 509 509
510 510 510 511 511 512 514 514 514 514
515 515 516 516 517 517 517 518 518 519
519 519 520 520 521 521 522 522 523 524
525 525 525 526 526 526 527 527 527 528
528 529 529 530 530 531 531 532 532 533
533 534 534 535 535 536 536 537 537 537
538 538 539 539 539 539 540 540 541 541
543 543 544 544 545 546 546 547 547 547
547 548 548 549 549 550 550 550 550 551
551 552 552 553 553 555 555 556 556 557
557 558 558 558 559 560 560 561 561 562
562 563 563 563 564 564 564 565 566 566
567 567 569 569 569 569 570 570 570 570
571 571 571 572 572 572 573 573 573 574
574 574 575 575 575 576 576 576 577 578
579 580 580 580 580 581 581 581 582 582
583 583 583 583 584 584 585 585 586 586
586 587 587 588 588 588 588 589 589 590
590 590 590 591 591 591 592 592 593 593
594 594 594 594 595 595 595 595 596 596
597 598 598 598 599 599 599 599 600 600
601 601 602 602 602 602 603 603 603 604
604 604 605 605 605 606 606 606 607 607
608 609 609 610 610 611 611 611 612 612
612 613 613 613 614 614 615 616 616 617
617 617 617 618 618 619 619 620 620 620
621 621 621 622 622 623 623 624 624 624
625 625 625 626 626 626 627 627 627 628
628 629 629 629 630 631 631 631 632 632
632 633 633 634 634 634 635 635 635 635
636 636 637 637 638 638 638 639 639 640
640 640 640 641 641 641 642 642 642 643
643 643 643 644 644 644 645 645 646 646
646 647 647 648 648 648 649 649 650 650
651 651 651 652 652 653 653 653 653 654
654 655 655 655 656 657 658 658 659 659
659 659 660 660 661 661 662 662 662 663
664 665 665 666 666 666 667 667 667 668
669 669 670 670 671 671 671 672 672 672
673 673 673 674 674 675 675 675 676 676
676 677 677 678 678 678 679 679 679 680
680 681 681 682 682 682 682 684 684 684
684 685 685 685 686 687 687 687 688 688
688 689 689 690 690 690 691 691 692 692
693 693 693 693 694 694 695 695 696 696
696 697 697 699 699 699 699 700 700 700
702 702 703 703 704 704 704 705 705 706
706 707 708 708 709 710 711 711 712 712
712 713 715 715 716 717 717 717 718 718
719 719 719 720 720 721 722 722 722 723
723 724 724 724 724 725 725 726 726 727
727 727 728 728 728 728 730 730 730 731
731 732 732 733 733 734 734 735 735 736
736 737 737 738 738 739 739 739 740 740
741 741 742 742 743 743 744 744 744 745
745 746 746 747 749 749 750 752 753 753
754 754 755 755 756 756 757 757 758 758
759 761 761 761 762 762 763 763 763 764
765 765 766 766 767 767 768 768 768 770
770 771 772 772 772 773 773 774 774 775
775 775 776 777 778 778 778 779 780 780
781 781 781 782 782 783 783 783 784 784
784 785 786 786 787 788 788 788 789 789
790 790 790 791 791 792 793 793 794 795
795 796 796 797 798 798 799 799 800 800
801 801 802 802 802 803 803 804 804 805
805 806 806 807 807 807 807 808 809 809
811 811 813 813 814 814 815 815 816 816
817 817 818 818 819 820 820 821 822 822
822 823 823 824 825 827 827 827 828 828
829 829 830 831 831 832 832 833 833 834
834 835 837 837 838 839 839 840 840 841
841 842 843 843 844 845 845 846 846 847
847 848 848 849 849 850 851 851 853 853
854 854 855 856 856 856 857 857 858 858
859 859 859 860 861 861 862 863 863 866
866 867 867 868 868 869 870 871 871 872
872 873 874 874 875 875 875 876 877 878
878 879 879 880 881 882 883 883 884 885
886 886 887 888 888 889 891 892 893 894
894 895 895 895 896 896 897 897 897 898
899 900 901 902 902 903 903 903 904 904
905 905 906 907 908 909 910 911 912 913
913 914 917 918 919 920 921 921 922 922
922 923 923 923 924 924 925 925 926 927
927 928 928 928 929 929 929 930 930 930
931 931 931 932 932 933 933 933 934 934
934 935 935 935 936 936 936 937 937 938
938 939 939 940 940 941 941 941 942 942
943 943 943 945 945 946 946 946 947 947
948 948 949 949 949 950 950 950 951 951
951 952 952 953 953 953 954 954 954 955
955 956 957 957 958 958 959 959 959 960
960 961 961 962 962 963 963 964 964 965
965 966 966 967 967 968 968 969 970 971
971 972 973 973 973 974 974 974 975 976
976 976 977 977 978 978 978 979 979 980
981 981 982 982 983 983 984 984 985 985
986 986 987 987 988 988 988 989 989 989
990 990 991 991 992 992 993 994 995 995
996 996 997 997 998 998 999 999 1000 1000
1001 1002 1003 1004 1005 1006 1006 1007 1008 1009
1010 1011 1012 1013 1013 1014 1014 1015 1015 1015
1016 1016 1016 1017 1017 1017 1018 1018 1018 1019
1019 1019 1020 1020 1020 1021 1021 1021 1022 1022
1022 1023 1023 1024 1024 1025 1025 1026 1026 1026
1027 1027 1028 1028 1029 1030 1030 1031 1031 1032
1032 1032 1033 1033 1034 1034 1035 1036 1037 1037
1038 1038 1039 1039 1040 1040 1041 1041 1042 1042
1043 1043 1044 1044 1045 1045 1046 1046 1047 1047
1048 1048 1049 1049 1050 1050 1051 1051 1052 1052
1053 1053 1054 1054 1055 1055 1056 1056 1057 1057
1057 1058 1059 1060 1060 1061 1062 1062 1063 1063
1064 1064 1065 1065 1066 1066 1067 1067 1068 1068
1069 1069 1070 1070 1071 1071 1072 1072 1073 1073
1074 1074 1075 1075 1076 1076 1077 1077 1078 1078
1079 1079 1080 1080 1081 1081 1082 1082 1083 1083
1084 1084 1085 1085 1085 1086 1086 1087 1087 1088
1089 1089 1090 1090 1091 1091 1092 1092 1093 1093
1094 1094 1094 1095 1096 1096 1098 1098 1099 1100
1102 1104 1106 1106 1108 1110 1110 1111 1112 1114
1116 1116 1116 1117 1118 1120 1122 1124 1126 1127
1128 1129 1130 1132 1132 1133 1134 1136 1137 1138

face_cell_2 1 2550 double
19 74 42 2 20 75 3 43 6 25
108 5 27 110 115 23 38 71 1104 21
391 24 168 100 124 136 28 16 1121 40
1115 37 58 26 14 239 124 52 136 31
639 65 30 18 17 294 146 29 22 237
1097 48 61 72 68 41 95 144 85 32
35 406 33 147 95 55 45 56 -1 42
24 -1 21 43 159 133 277 157 62 158
86 119 89 118 146 466 74 219 467 72
75 468 147 -1 888 35 84 171 51 698
1129 45 46 73 137 39 47 319 84 54
172 67 220 50 36 128 499 228 44 545
280 418 112 59 115 328 440 156 407 788
121 90 264 227 53 341 127 126 342 683
114 50 162 239 47 76 235 124 93 130
1096 240 110 57 97 149 206 422 305 183
179 -1 733 73 166 368 193 311 184 85
134 490 56 106 88 391 142 230 64 489
162 119 863 392 77 107 83 92 -1 68
64 386 536 237 80 117 81 103 232 91
598 88 1128 86 139 743 71 185 345 69
400 155 87 160 217 104 105 253 177 231
153 350 336 321 98 383 359 384 360 93
317 96 100 142 835 98 267 564 137 104
394 276 177 103 402 527 551 101 1124 325
165 1101 109 100 120 106 512 148 322 143
141 589 241 111 154 596 107 236 127 102
112 793 173 197 243 231 187 553 107 -1
562 465 102 198 99 193 205 516 116 176
108 528 142 1113 496 180 424 236 565 117
766 397 371 248 379 257 307 222 320 229
310 554 120 596 110 146 749 150 349 147
410 191 178 495 262 456 311 148 702 423
431 206 123 286 634 291 235 577 549 -1
371 168 -1 511 420 615 -1 1114 275 135
683 164 192 274 863 218 -1 704 265 141
575 127 133 188 189 -1 156 443 525 667
246 198 -1 287 157 451 199 170 1108 501
222 298 621 190 415 554 169 258 144 399
851 614 521 748 566 626 620 176 284 265
831 182 537 199 641 295 770 158 187 -1
144 965 164 241 160 1106 326 528 205 507
305 163 362 214 -1 738 1100 173 840 765
376 170 283 446 357 435 369 182 -1 178
447 226 197 441 1117 529 841 300 -1 849
-1 1105 531 1107 411 497 203 190 211 698
231 205 362 332 297 264 292 349 249 261
472 340 1111 322 655 227 254 272 231 476
328 478 295 618 183 359 619 184 360 275
967 524 242 1103 318 502 188 245 189 706
317 195 279 927 480 234 304 294 246 533
324 191 506 312 244 281 325 -1 964 -1
965 -1 447 220 1120 224 234 202 230 553
342 355 341 356 531 247 491 428 925 297
737 439 404 200 444 283 441 262 279 388
666 358 692 224 251 476 607 248 622 278
459 255 226 346 281 250 282 404 555 340
708 247 207 -1 791 1102 242 399 592 679
632 354 719 336 256 285 493 711 215 259
212 249 776 766 292 415 556 324 648 382
690 364 252 315 302 398 752 230 571 251
238 662 245 355 753 416 577 228 308 286
614 296 239 1135 333 838 673 370 674 252
628 320 685 694 250 378 767 313 671 255
723 366 400 366 1110 261 379 520 -1 992
253 601 -1 990 243 1132 1099 288 741 395
313 578 760 565 415 534 374 476 316 543
714 287 997 417 -1 260 986 436 665 743
373 552 394 718 356 -1 804 -1 805 -1
806 824 470 736 377 259 665 734 389 1095
427 323 263 272 731 381 992 310 343 452
367 379 490 328 597 -1 801 -1 326 312
-1 796 376 495 448 323 513 442 445 -1
798 273 558 450 396 268 817 361 -1 1112
789 289 403 701 385 787 271 426 1131 432
1130 318 446 420 737 730 431 -1 849 308
-1 847 298 518 290 790 307 579 -1 1109
815 461 530 1115 330 290 464 378 471 377
303 381 546 -1 291 803 544 343 587 430
890 -1 858 -1 1122 800 485 405 495 871
330 837 380 698 369 455 314 306 309 404
810 -1 816 493 1134 306 -1 725 -1 871
372 585 444 314 827 335 773 314 455 372
840 492 361 370 1122 453 435 395 964 687
-1 872 309 714 795 1097 339 1099 1139 363
388 481 -1 883 327 552 -1 872 505 487
389 380 382 1109 637 -1 866 432 436 760
808 440 -1 868 -1 1113 866 -1 883 -1
940 354 695 464 749 560 327 347 485 392
593 735 353 479 -1 809 353 650 419 337
520 399 1130 865 334 409 447 480 434 -1
386 887 544 350 479 423 916 352 582 898
584 -1 792 1098 358 756 -1 881 -1 882
-1 541 511 543 600 392 -1 422 1107 482
352 630 418 351 485 357 476 554 1108 489
522 -1 780 433 560 555 486 608 972 519
-1 804 -1 805 -1 806 420 441 -1 796
618 383 619 384 566 532 439 416 513 1138
615 503 421 1126 554 1119 565 413 -1 801
610 1131 1124 445 472 1107 609 698 -1 789
-1 779 755 846 -1 567 428 812 568 534
542 915 488 390 388 455 -1 800 -1 798
545 524 578 -1 816 -1 815 -1 828 -1
829 495 1139 742 845 786 449 504 1104 436
493 -1 803 508 500 691 836 586 581 412
414 526 649 567 518 -1 842 431 426 423
1125 1128 752 1130 601 1125 707 -1 860 759
413 437 1108 523 551 542 405 475 750 697
461 506 490 808 521 562 529 556 458 409
469 652 535 434 577 549 491 701 416 439
-1 425 460 424 1118 686 654 540 836 750
744 568 604 433 809 762 757 423 615 477
503 429 820 445 759 533 649 839 515 1103
916 861 1095 647 536 927 484 855 1127 1123
435 747 683 729 709 -1 636 -1 720 609
498 -1 954 1109 783 818 442 538 697 835
836 714 813 725 -1 1117 499 850 546 538
478 940 -1 -1 494 466 -1 468 498 968
746 1102 717 779 465 479 610 515 471 993
771 -1 467 489 522 493 507 1062 -1 784
496 844 1098 605 715 535 1024 473 462 523
875 654 530 506 -1 860 474 563 508 1136
542 -1 630 740 759 705 828 819 780 829
707 633 726 832 915 1101 568 -1 608 -1
978 -1 850 474 981 587 1134 1139 794 -1
484 1025 -1 779 545 720 721 868 561 541
-1 1027 486 1055 548 561 572 982 -1 701
979 -1 -1 557 524 812 568 500 990 890
506 777 -1 532 1126 513 774 705 814 792
631 516 797 707 791 879 597 782 854 628
1040 -1 1014 510 509 557 559 -1 1105 994
774 513 585 -1 977 1009 517 -1 512 882
-1 512 881 -1 870 977 771 670 582 915
523 735 660 876 -1 691 1137 -1 1007 -1
754 650 1131 683 748 890 738 819 1136 986
996 607 -1 -1 540 999 721 865 542 821
810 -1 1058 1134 576 -1 876 785 1001 -1
988 777 864 -1 838 579 845 622 998 -1
-1 820 -1 696 1023 1112 987 751 -1 548
870 637 -1 860 865 -1 1005 -1 1102 746
559 -1 664 721 777 681 782 573 688 852
776 -1 1007 794 1138 636 756 797 695 -1
559 848 574 862 1103 -1 1061 611 765 -1
797 593 652 865 844 817 751 835 578 716
-1 579 686 623 612 748 844 751 629 1123
651 589 870 -1 1000 664 802 913 726 606
625 757 895 591 911 680 647 1135 750 729
-1 661 592 613 762 879 600 597 608 670
-1 1100 584 853 630 1101 -1 1005 1104 760
709 664 755 933 889 657 739 677 956 934
741 891 663 905 663 892 799 823 1028 745
929 1112 603 869 1060 675 1121 -1 808 909
1119 1125 909 616 785 916 1126 669 -1 1029
909 709 658 623 944 616 948 873 645 853
997 1100 633 1046 -1 923 907 638 -1 1051
-1 639 763 787 769 922 642 908 686 656
747 678 823 715 733 888 714 1124 656 946
657 661 880 -1 881 -1 882 931 624 877
943 885 627 -1 1041 658 748 937 645 873
1054 778 761 1052 706 -1 945 884 668 1042
-1 -1 987 1122 -1 -1 660 1048 -1 1006
708 1050 -1 876 1105 837 989 878 773 689
-1 1121 -1 1029 939 657 880 747 656 973
681 689 886 903 644 910 938 885 668 976
772 668 884 904 912 713 1020 646 953 877
674 680 819 -1 1013 711 874 769 669 921
1049 -1 677 745 832 951 663 694 892 896
852 928 672 900 852 1018 716 769 949 692
710 899 1030 -1 963 889 -1 718 1034 1016
981 -1 956 -1 1043 767 897 920 676 1017
969 775 712 825 731 1037 -1 947 906 710
734 -1 1038 962 869 -1 1053 1120 902 764
918 -1 1033 1045 -1 732 799 826 914 824
864 985 878 936 710 702 899 959 703 917
758 -1 736 1039 751 793 857 742 887 811
786 1026 703 935 901 700 894 825 960 900
716 787 785 769 966 891 -1 1058 1056 1113
-1 810 701 950 723 910 713 952 713 912
955 906 971 886 -1 770 1044 857 821 -1
1030 851 -1 1048 722 1021 -1 1049 -1 980
825 1019 732 924 729 -1 740 1041 -1 1014
930 919 727 834 830 812 729 944 760 961
901 -1 1115 1060 768 -1 1004 843 811 942
764 918 941 920 753 764 848 957 826 1024
-1 -1 1046 -1 792 -1 1025 1028 754 -1
1027 968 957 -1 1059 983 907 826 1051 -1
984 911 821 810 956 831 858 970 758 -1
972 -1 862 890 -1 1003 752 794 958 919
-1 839 850 846 -1 1061 867 926 781 854
-1 -1 862 855 867 924 771 776 852 1015
847 1000 824 1129 1053 -1 1064 1114 -1 -1
1033 896 991 1114 908 995 917 -1 1036 -1
1127 921 915 864 -1 855 926 -1 -1 1008
1063 859 856 893 913 813 1084 -1 -1 1085
814 874 830 812 916 -1 842 1120 -1 869
1093 795 -1 -1 1035 -1 842 932 1128 -1
1042 -1 900 -1 -1 892 -1 889 -1 891
-1 901 1086 -1 843 -1 877 -1 918 -1
919 -1 920 -1 818 914 822 944 -1 1007
-1 830 1057 -1 1056 -1 -1 912 -1 910
-1 999 1084 833 861 -1 914 1138 1031 826
833 -1 838 864 894 -1 841 1047 -1 1010
-1 1012 834 -1 1003 -1 1009 -1 1004 -1
1088 836 -1 994 -1 -1 969 967 1002 -1
1093 -1 1050 -1 -1 -1 1088 -1 1002 -1
908 -1 907 -1 911 -1 1012 925 -1 970
893 975 982 -1 898 970 932 1010 -1 917
-1 975 898 -1 1008 974 -1 -1 1011 -1
873 -1 880 -1 885 -1 -1 -1 884 -1
899 -1 1001 969 -1 1137 980 -1 -1 -1
887 -1 1011 -1 -1 -1 -1 906 -1 -1
-1 893 -1 -1 1011 -1 -1 -1 -1 -1
975 905 -1 1044 993 980 -1 902 996 979
-1 -1 -1 1069 -1 904 -1 998 -1 1071
1066 -1 -1 -1 -1 944 -1 -1 -1 -1
1009 -1 -1 -1 -1 -1 -1 926 1055 938
-1 939 -1 1054 -1 972 -1 1035 -1 -1
1088 947 -1 1022 1023 948 -1 1006 942 -1
937 -1 1052 -1 1036 983 -1 1091 -1 984
1090 -1 1013 952 1082 955 -1 1075 -1 -1
1065 1067 -1 -1 1005 958 -1 1068 1070 -1
-1 1040 945 -1 1079 -1 1081 963 -1 1073
-1 1076 -1 960 1074 961 -1 1077 966 -1
1080 1078 -1 962 1072 -1 -1 1118 1029 -1
1062 -1 -1 1004 1034 -1 971 -1 1063 1043
-1 -1 1037 1038 -1 -1 1045 -1 1010 -1
1012 -1 1039 -1 1036 -1 1035 -1 -1 1083
-1 -1 1087 -1 985 -1 1094 1059 -1 1089
-1 991 -1 -1 -1 1061 1106 -1 -1 -1
-1 -1 -1 -1 1031 -1 1032 -1 -1 1086
-1 994 -1 993 -1 1116 1058 1092 -1 995
-1 1003 -1 1064 -1 1008 -1 -1 1047 -1
-1 -1 -1 1059 -1 -1 -1 1001 -1 1002
-1 -1 -1 -1 -1 -1 -1 -1 -1 -1
-1 -1 -1 -1 -1 -1 -1 1070 1069 1068
1090 1080 1066 1079 1089 1065 1067 1091 1081 1071
1078 1077 1076 1075 1072 1074 1073 1082 -1 1111
-1 -1 -1 -1 -1 -1 -1 1087 1083 1092
-1 -1 -1 1136 -1 -1 -1 -1 -1 -1
-1 1132 -1 -1 -1 -1 -1 -1 -1 -1
-1 -1 -1 -1 -1 -1 -1 -1 -1 -1
-1 -1 -1 -1 -1 -1 -1 -1 -1 -1
-1 -1 -1 -1 -1 -1 -1 -1 -1 -1
-1 -1 -1 -1 -1 -1 -1 -1 -1 1110
-1 -1 -1 -1 -1 -1 -1 -1 -1 -1
-1 -1 -1 -1 -1 -1 -1 -1 -1 -1
-1 -1 -1 -1 -1 -1 -1 -1 -1 -1
-1 -1 -1 -1 -1 -1 -1 -1 -1 -1
-1 -1 -1 -1 -1 -1 -1 -1 -1 -1
-1 -1 -1 1133 -1 -1 -1 -1 -1 -1
-1 -1 -1 -1 -1 -1 -1 -1 -1 -1
1095 -1 1096 1097 1097 -1 1099 1133 1123 1101
1103 1105 1107 -1 1109 1111 -1 -1 1113 1115